# vtk DataFile Version 3.0
Q8 mesh as triangles
ASCII
DATASET UNSTRUCTURED_GRID
POINTS 9 float
0.000000 0.000000 0.000000
0.000000 0.500000 0.000000
0.000000 1.000000 0.000000
1.000000 0.000000 0.000000
1.000000 0.500000 0.000000
1.000000 1.000000 0.000000
2.000000 0.000000 0.000000
2.000000 0.500000 0.000000
2.000000 1.000000 0.000000
CELLS 4 16
3 0 1 6
3 6 7 1
3 7 1 2
3 7 8 2
CELL_TYPES 4
5
5
5
5
POINT_DATA 9
SCALARS disp_magnitude float 1
LOOKUP_TABLE default
0.000000
0.000000
0.000000
0.000001
0.000000
0.000001
0.000002
0.000002
0.000002
