# vtk DataFile Version 3.0
FEM results
ASCII
DATASET UNSTRUCTURED_GRID
POINTS 133 float
0.000000 0.000000 0.000000
0.000000 30.000000 0.000000
90.000000 0.000000 0.000000
90.000000 30.000000 0.000000
45.000000 0.000000 0.000000
45.000000 30.000000 0.000000
90.000000 15.000000 0.000000
5.000000 0.000000 0.000000
5.000000 5.000000 0.000000
0.000000 4.999999 0.000000
0.000000 25.000000 0.000000
5.000000 25.000000 0.000000
5.000000 30.000000 0.000000
90.000000 5.000000 0.000000
85.000000 5.000002 0.000000
85.000000 0.000000 0.000000
85.000000 30.000000 0.000000
85.000000 25.000000 0.000000
90.000000 25.000000 0.000000
45.000000 4.999999 0.000000
40.000000 5.000000 0.000000
39.999998 0.000000 0.000000
50.000000 0.000000 0.000000
50.000000 4.999999 0.000000
40.000000 30.000000 0.000000
40.000000 25.000000 0.000000
45.000000 25.000001 0.000000
50.000000 25.000000 0.000000
50.000000 30.000000 0.000000
85.000000 15.000000 0.000000
85.000000 10.000000 0.000000
90.000000 10.000000 0.000000
90.000000 20.000001 0.000000
85.000000 20.000000 0.000000
80.000000 25.000000 0.000000
80.000000 20.000000 0.000000
80.000000 15.000000 0.000000
75.000000 20.000000 0.000000
75.000000 14.999999 0.000000
75.000000 10.000000 0.000000
80.000000 10.000000 0.000000
80.000000 5.000002 0.000000
80.000000 0.000000 0.000000
69.999998 14.999999 0.000000
69.999998 10.000000 0.000000
69.999998 4.999999 0.000000
75.000000 5.000000 0.000000
70.000000 0.000000 0.000000
75.000000 0.000000 0.000000
65.000000 5.000000 0.000000
65.000000 0.000000 0.000000
60.000000 5.000000 0.000000
60.000000 0.000000 0.000000
55.000000 5.000001 0.000000
55.000000 0.000000 0.000000
60.000000 10.000000 0.000000
55.000000 10.000001 0.000000
50.000000 10.000000 0.000000
55.000000 15.000000 0.000000
50.000000 15.000001 0.000000
45.000000 15.000000 0.000000
45.000000 10.000000 0.000000
40.000002 15.000000 0.000000
40.000000 10.000000 0.000000
35.000002 15.000001 0.000000
35.000000 10.000002 0.000000
35.000000 5.000002 0.000000
30.000000 10.000001 0.000000
30.000000 5.000002 0.000000
30.000000 0.000000 0.000000
34.999998 0.000000 0.000000
25.000000 5.000000 0.000000
25.000000 0.000000 0.000000
20.000002 5.000000 0.000000
20.000000 0.000000 0.000000
15.000000 5.000000 0.000000
15.000000 0.000000 0.000000
10.000000 5.000000 0.000000
10.000000 0.000000 0.000000
15.000000 10.000000 0.000000
10.000000 9.999999 0.000000
5.000000 9.999999 0.000000
10.000000 15.000000 0.000000
5.000000 14.999999 0.000000
0.000000 14.999999 0.000000
0.000000 9.999999 0.000000
5.000000 20.000000 0.000000
0.000000 20.000000 0.000000
10.000000 20.000000 0.000000
10.000000 25.000000 0.000000
15.000000 25.000000 0.000000
15.000000 30.000000 0.000000
10.000000 30.000000 0.000000
15.000000 20.000000 0.000000
20.000002 20.000000 0.000000
20.000002 25.000000 0.000000
15.000000 15.000000 0.000000
20.000002 15.000000 0.000000
25.000000 15.000000 0.000000
25.000000 20.000000 0.000000
20.000002 10.000000 0.000000
25.000000 10.000000 0.000000
30.000000 19.999999 0.000000
30.000000 25.000000 0.000000
25.000000 25.000000 0.000000
30.000000 15.000000 0.000000
35.000002 19.999998 0.000000
40.000001 20.000000 0.000000
35.000000 25.000000 0.000000
35.000000 30.000000 0.000000
30.000000 30.000000 0.000000
25.000000 30.000000 0.000000
20.000000 30.000000 0.000000
45.000000 20.000000 0.000000
50.000000 20.000000 0.000000
55.000000 19.999998 0.000000
55.000000 24.999998 0.000000
60.000000 25.000000 0.000000
60.000000 30.000000 0.000000
55.000000 30.000000 0.000000
60.000000 19.999999 0.000000
65.000000 19.999999 0.000000
65.000000 25.000000 0.000000
60.000000 14.999999 0.000000
65.000000 14.999999 0.000000
69.999998 20.000000 0.000000
65.000000 10.000000 0.000000
75.000000 25.000000 0.000000
69.999998 25.000000 0.000000
75.000000 30.000000 0.000000
70.000000 30.000000 0.000000
65.000000 30.000000 0.000000
80.000000 30.000000 0.000000
CELLS 108 540
4 0 7 8 9
4 1 10 11 12
4 2 13 14 15
4 3 16 17 18
4 4 19 20 21
4 4 22 23 19
4 5 24 25 26
4 5 26 27 28
4 6 29 30 31
4 6 32 33 29
4 33 32 18 17
4 33 17 34 35
4 33 35 36 29
4 36 35 37 38
4 36 38 39 40
4 36 40 30 29
4 40 41 14 30
4 41 42 15 14
4 39 38 43 44
4 39 44 45 46
4 39 46 41 40
4 46 45 47 48
4 46 48 42 41
4 47 45 49 50
4 50 49 51 52
4 52 51 53 54
4 54 53 23 22
4 53 51 55 56
4 53 56 57 23
4 57 56 58 59
4 57 59 60 61
4 57 61 19 23
4 61 60 62 63
4 61 63 20 19
4 63 62 64 65
4 63 65 66 20
4 66 65 67 68
4 66 68 69 70
4 66 70 21 20
4 69 68 71 72
4 72 71 73 74
4 74 73 75 76
4 76 75 77 78
4 78 77 8 7
4 77 75 79 80
4 77 80 81 8
4 81 80 82 83
4 81 83 84 85
4 81 85 9 8
4 84 83 86 87
4 87 86 11 10
4 86 88 89 11
4 86 83 82 88
4 89 90 91 92
4 89 92 12 11
4 89 88 93 90
4 93 94 95 90
4 93 88 82 96
4 93 96 97 94
4 97 98 99 94
4 97 100 101 98
4 101 100 73 71
4 101 71 68 67
4 99 102 103 104
4 99 104 95 94
4 99 98 105 102
4 105 64 106 102
4 105 67 65 64
4 106 107 25 108
4 106 108 103 102
4 106 64 62 107
4 108 25 24 109
4 108 109 110 103
4 110 111 104 103
4 111 112 95 104
4 112 91 90 95
4 107 113 26 25
4 107 62 60 113
4 113 114 27 26
4 113 60 59 114
4 114 115 116 27
4 114 59 58 115
4 116 117 118 119
4 116 119 28 27
4 116 115 120 117
4 120 121 122 117
4 120 115 58 123
4 120 123 124 121
4 124 43 125 121
4 124 123 55 126
4 124 126 44 43
4 126 55 51 49
4 126 49 45 44
4 125 37 127 128
4 125 128 122 121
4 125 43 38 37
4 128 127 129 130
4 128 130 131 122
4 131 118 117 122
4 129 127 34 132
4 132 34 17 16
4 127 37 35 34
4 123 58 56 55
4 98 101 67 105
4 96 82 80 79
4 96 79 100 97
4 79 75 73 100
4 31 30 14 13
CELL_TYPES 108
9
9
9
9
9
9
9
9
9
9
9
9
9
9
9
9
9
9
9
9
9
9
9
9
9
9
9
9
9
9
9
9
9
9
9
9
9
9
9
9
9
9
9
9
9
9
9
9
9
9
9
9
9
9
9
9
9
9
9
9
9
9
9
9
9
9
9
9
9
9
9
9
9
9
9
9
9
9
9
9
9
9
9
9
9
9
9
9
9
9
9
9
9
9
9
9
9
9
9
9
9
9
9
9
9
9
9
9
POINT_DATA 133
SCALARS disp_magnitude float 1
LOOKUP_TABLE default
0.000000
0.000000
0.000083
0.000083
0.000030
0.000030
0.000080
0.000002
0.000001
0.000000
0.000000
0.000001
0.000002
0.000081
0.000075
0.000076
0.000076
0.000075
0.000081
0.000028
0.000023
0.000025
0.000035
0.000033
0.000025
0.000023
0.000028
0.000033
0.000035
0.000074
0.000074
0.000080
0.000080
0.000074
0.000068
0.000067
0.000067
0.000061
0.000061
0.000061
0.000067
0.000068
0.000070
0.000054
0.000055
0.000056
0.000062
0.000057
0.000064
0.000050
0.000052
0.000044
0.000046
0.000038
0.000040
0.000043
0.000037
0.000032
0.000037
0.000031
0.000026
0.000026
0.000021
0.000022
0.000017
0.000017
0.000019
0.000013
0.000015
0.000017
0.000021
0.000011
0.000013
0.000008
0.000010
0.000005
0.000007
0.000003
0.000005
0.000004
0.000002
0.000001
0.000002
0.000000
0.000000
0.000000
0.000001
0.000000
0.000002
0.000003
0.000005
0.000007
0.000005
0.000004
0.000007
0.000008
0.000004
0.000006
0.000009
0.000010
0.000007
0.000010
0.000013
0.000015
0.000011
0.000013
0.000017
0.000022
0.000019
0.000021
0.000017
0.000013
0.000010
0.000026
0.000032
0.000037
0.000038
0.000044
0.000046
0.000040
0.000043
0.000049
0.000050
0.000042
0.000048
0.000055
0.000049
0.000062
0.000056
0.000064
0.000057
0.000052
0.000070
